 # File generated with Atomsk by me_tchaikovsky on 2019-09-16 16:57:02
 
          50  atoms
           4  atom types
 
      0.00000000       8.78765000  xlo xhi
      0.00000000       8.78765000  ylo yhi
      0.00000000      12.65760000  zlo zhi
 
Masses
 
           1   6.94000000    # Li
           2   72.63000000    # Ge
           3   30.97376200    # P 
           4   32.06000000    # S 
 
Atoms # atomic
 
         1    1        1.21708953       1.63705132       4.71001954
         2    1        5.59404224       5.62848982       4.15257883
         3    1        1.26524585       6.04792436      10.52935114
         4    1        5.24816033       1.28440292      10.58529773
         5    1        0.79440356       5.66232228       4.11751728
         6    1        5.55502507       1.60453701       4.42319832
         7    1        1.25408553       1.27570315      10.60099315
         8    1        5.25782675       5.90450991      10.36176451
         9    1        7.69103916       7.99438883      12.36331080
        10    1        7.68884224       8.06055984       6.06273725
        11    1        3.28956890       3.68615555       7.47811008
        12    1        3.25186988       3.53527159       1.20399091
        13    1        1.08729593       5.69193666       0.97564781
        14    1        5.37531763       1.53036925       0.92754893
        15    1        1.30874471       1.51261819       7.53430982
        16    1        5.23269407       5.75046241       7.22951482
        17    1        1.27965759       5.74949577       7.22533781
        18    1        5.31854941       1.44495329       7.43494766
        19    1        1.09265640       1.60277948       1.01577240
        20    1        5.19596169       5.47980279       0.44656013
        21    2        3.11750671       3.54036843      10.56264062
        22    2        3.30811084       3.64300818       4.40168040
        23    3        7.66775188       7.97391361       9.19169597
        24    3        7.59630829       8.02400321       2.79758275
        25    3        7.64534338       3.64784139       6.81421896
        26    3        3.27981461       7.96275329       0.54174528
        27    4        7.60658984       5.36152102       5.67402235
        28    4        7.70079345       1.94980378       5.65009949
        29    4        1.55444741       8.00765819      12.05661715
        30    4        4.93321096       7.88296143      11.96016624
        31    4        3.29150218       0.84255988       1.72029442
        32    4        3.29791717       6.26884588       1.70244720
        33    4        0.51398965       3.67613762       8.01289368
        34    4        5.97516262       3.63140849       8.01112162
        35    4        7.58022689       6.29292404       1.65700642
        36    4        7.59920821       0.90600671       1.58726304
        37    4        0.57523957       7.97962558       7.99897032
        38    4        5.94097866       7.96398357       8.04858811
        39    4        3.33728584       1.87677841       5.84945669
        40    4        3.29932319       5.52628946       5.63010048
        41    4        1.33976512       3.53219592      11.92712990
        42    4        5.01660576       3.46242198      11.76802387
        43    4        7.67645166       0.88746477      10.31910840
        44    4        7.66775188       6.29793300      10.36189109
        45    4        5.94291194       8.01829124       4.00840877
        46    4        0.51671382       8.04755412       3.95625946
        47    4        3.18745641       5.40563502       9.32118322
        48    4        3.19703495       1.70867067       9.27915998
        49    4        5.09059777       3.53096565       3.07225267
        50    4        1.44943499       3.54546527       3.17946254
